####################################################################### 
# 
# This file contains crystal structure data downloaded from the 
# Cambridge Structural Database (CSD) hosted by the Cambridge 
# Crystallographic Data Centre (CCDC).
# 
# Full information about CCDC data access policies and citation 
# guidelines are available at http://www.ccdc.cam.ac.uk/access/V1 
# 
# Audit and citation data items may have been added by the CCDC. 
# Please retain this information to preserve the provenance of 
# this file and to allow appropriate attribution of the data. 
# 
#######################################################################

data_cmpd_Compound_3
_audit_block_doi                 10.5517/cc6wxfd
_database_code_depnum_ccdc_archive 'CCDC 205574'
loop_
_citation_id
_citation_doi
_citation_year
1 10.1039/b302840b 2003
_audit_update_record             
;
2003-03-06 deposited with the CCDC.
2017-12-05 downloaded from the CCDC.
;

_audit_creation_method           'manually at CCDC'

_chemical_name_systematic        
;  
catena-(bis(mu2-imidazolate-N,N')-Cd(II)
;
_chemical_name_common            ?
_chemical_formula_moiety         Cd(im)2

_chemical_formula_weight         246.56

_symmetry_cell_setting           orthorhombic
_symmetry_space_group_name_H-M   Pbca
_symmetry_Int_Tables_number      ?

loop_
_symmetry_equiv_pos_as_xyz
?
?
?

_cell_length_a                   14.6045(5)
_cell_length_b                   10.7385(3)
_cell_length_c                   9.9229(4)
_cell_angle_alpha                90.0
_cell_angle_beta                 90.0
_cell_angle_gamma                90.0
_cell_volume                     1556.21(9)
_cell_formula_units_Z            8

_exptl_crystal_density_diffrn    2.1047

_diffrn_ambient_temperature      0

_diffrn_source                   ?

_diffrn_radiation_probe          x-ray
_diffrn_radiation_type           ?
_chemical_melting_point          ?


_exptl_crystal_description       ?
_exptl_special_details           
; 
Lambda(CuKa) =   1.54180 Angstrom   
;

_refine_special_details          
;
Rwp = 0.106; RB = 0.057
;


_refine_ls_R_factor_gt           0.057
#This value may have been taken from more than one field 

loop_
_atom_site_label
_atom_site_fract_x
_atom_site_fract_y
_atom_site_fract_z
Cd 0.38786 0.03210 0.30158
N1A 0.50639 0.40336 0.27639
C2A 0.50236 0.28502 0.22795
N3A 0.43579 0.22331 0.29670
C4A 0.39869 0.30352 0.38763
C5A 0.44232 0.41480 0.37508
H2A 0.54069 0.25030 0.15612
H4A 0.34920 0.28447 0.45106
H5A 0.42980 0.49001 0.42788
N1B 0.27229 0.45501 0.65333
C2B 0.23771 0.52395 0.55024
N3B 0.16603 0.46036 0.49622
C4B 0.15630 0.35212 0.56593
C5B 0.22198 0.34882 0.66303
H2B 0.26045 0.60518 0.52015
H4B 0.11009 0.28780 0.54914
H5B 0.23139 0.28170 0.72850

loop_
_geom_bond_atom_site_label_1
_geom_bond_atom_site_label_2
_geom_bond_distance
Cd N(1B) 2.2432
Cd N(3B) 2.2233
Cd N(3A) 2.1699
N(1A) C(2A) 1.3599
N(1A) C(5A) 1.3600
N(1B) C(2B) 1.3600
N(1B) C(5B) 1.3599
N(3A) C(2A) 1.3601
N(3A) C(4A) 1.3600
N(3B) C(4B) 1.3600
N(3B) C(2B)b 1.3600
C(4A) C(5A) 1.3600
C(4B) C(5B) 1.3600
C(2A) H(2A) 0.9800
C(2B) H(2B) 0.9800
C(4A) H(4A) 0.9800
C(4B) H(4B) 0.9799
C(5A) H(5A) 0.9799
C(5B) H(5B) 0.9800

loop_
_geom_angle_atom_site_label_1
_geom_angle_atom_site_label_2
_geom_angle_atom_site_label_3
_geom_angle
N(1B) Cd N(3B) 108.95
N(1B) Cd N(3A) 99.77
N(3B) Cd N(3A) 117.48
Cd N(1A) C(2A) 119.37
Cd N(1A) C(5A) 132.50
C(2A) N(1A) C(5A) 108.01
Cd N(1B) C(2B) 137.65
Cd N(1B) C(5B) 114.32
C(2B) N(1B) C(5B) 108.00
C(2A) N(3A) C(4A) 108.00
C(2A) N(3A) Cd_d 134.66
C(4A) N(3A) Cd_d 117.13
Cd N(3B) C(4B) 134.50
Cd N(3B) C(2B) 116.16
C(4B) N(3B) C(2B) 108.00
N(1A) C(2A) N(3A) 108.00
N(1B) C(2B) N(3B) 108.00
N(3A) C(4A) C(5A) 108.00
N(3B) C(4B) C(5B) 107.99
N(1A) C(5A) C(4A) 107.99
N(1B) C(5B) C(4B) 108.00
N(1A) C(2A) H(2A) 126.00
N(3A) C(2A) H(2A) 126.00
N(1B) C(2B) H(2B) 126.01
H(2B) C(2B) N(3B) 126.00
N(3A) C(4A) H(4A) 126.00
C(5A) C(4A) H(4A) 126.00
N(3B) C(4B) H(4B) 126.01
H(4B) C(4B) C(5B) 126.00
N(1A) C(5A) H(5A) 126.00
C(4A) C(5A) H(5A) 126.00
N(1B) C(5B) H(5B) 126.00

loop_
_geom_torsion_atom_site_label_1
_geom_torsion_atom_site_label_2
_geom_torsion_atom_site_label_3
_geom_torsion_atom_site_label_4
_geom_torsion
N(3B) Cd N(1A) C(5A) 166.09
N(3A) Cd N(1A) C(2A) -149.70
N(3A) Cd N(1A) C(5A) 34.75
N(1A) Cd N(1B) C(2B) -21.37
N(1A) Cd N(1B) C(5B) 156.59
N(3B) Cd N(1B) C(2B) 98.43
N(3B) Cd N(1B) C(5B) -83.61
N(3A) Cd N(1B) C(2B) -137.92
N(3A) Cd N(1B) C(5B) 40.05
N(1A) Cd N(3B) C(4B) 9.21
N(1A) Cd N(3B) C(2B) 174.15
N(1B) Cd N(3B) C(4B) -110.59
N(1B) Cd N(3B) C(2B) 54.34
N(3A) Cd N(3B) C(4B) 137.02
N(3A) Cd N(3B) C(2B) -58.04
N(1A) Cd N(3A)e C(2A) -20.57
N(1A) Cd N(3A)e C(4A) 153.33
N(1B) Cd N(3A)e C(2A) 94.88
N(1B) Cd N(3A)e C(4A) -91.23
N(3B) Cd N(3A)e C(2A) -147.68
N(3B) Cd N(3A)e C(4A) 26.22
Cd N(1A) C(2A) N(3A) -176.56
C(5A) N(1A) C(2A) N(3A) -0.02
Cd N(1A) C(5A) C(4A) 175.93
C(2A) N(1A) C(5A) C(4A) 0.00
Cd N(1B) C(2B) N(3B) 178.05
C(5B) N(1B) C(2B) N(3B) 0.00
Cd N(1B) C(5B) C(4B) -178.56
C(2B) N(1B) C(5B) C(4B) 0.00
C(4A) N(3A) C(2A) N(1A) 0.02
Cd_d N(3A) C(2A) N(1A) 174.29
C(2A) N(3A) C(4A) C(5A) 0.00
Cd_d N(3A) C(4A) C(5A) -175.44
Cd N(3B) C(4B) C(5B) 165.80
C(2B)b N(3B) C(4B) C(5B) -0.02
Cd N(3B) C(2B) N(1B) -168.76
C(4B) N(3B) C(2B) N(1B) 0.02
N(3A) C(4A) C(5A) N(1A) 0.00
N(3B) C(4B) C(5B) N(1B) 0.00
Cd N(1A) C(2A) H(2A) 3.44
C(5A) N(1A) C(2A) H(2A) 179.98
Cd N(1A) C(5A) H(5A) -4.06
C(2A) N(1A) C(5A) H(5A) -180.00
Cd N(1B) C(2B) H(2B) -1.95
C(5B) N(1B) C(2B) H(2B) -180.00
Cd N(1B) C(5B) H(5B) 1.45
C(2B) N(1B) C(5B) H(5B) -180.00
C(4A) N(3A) C(2A) H(2A) -180.00
Cd_d N(3A) C(2A) H(2A) -5.71
C(2A) N(3A) C(4A) H(4A) 179.98
Cd_d N(3A) C(4A) H(4A) 4.56
Cd N(3B) C(4B) H(4B) -14.19
C(2B) N(3B) C(4B) H(4B) -179.98
Cd N(3B) C(2B) H(2B) 11.24
C(4B) N(3B) C(2B) H(2B) 179.98
N(3A) C(4A) C(5A) H(5A) 180.00
H(4A) C(4A) C(5A) N(1A) 180.00
H(4A) C(4A) C(5A) H(5A) 0.00
N(3B) C(4B) C(5B)b H(5B) 180.00
H(4B) C(4B) C(5B)b N(1B) 180.00
H(4B) C(4B) C(5B)b H(5B) 0.00

#END
